<?xml version="1.0" encoding="UTF-8"?>

<!-- generated on Mon Jul  9 22:27:37 2018 by SUMO dfrouter Version 0.32.0
<?xml version="1.0" encoding="UTF-8"?>

<configuration xmlns:xsi="http://www.w3.org/2001/XMLSchema-instance" xsi:noNamespaceSchemaLocation="http://sumo.dlr.de/xsd/dfrouterConfiguration.xsd">

    <input>
        <net-file value="bogota2.net.xml"/>
        <detector-files value="detectors.xml"/>
        <measure-files value="measures.csv"/>
    </input>

    <output>
        <routes-output value="routes.rou.xml"/>
        <emitters-output value="emitters.rou.xml"/>
        <validation-output value="validation_det.xml"/>
        <validation-output.add-sources value="true"/>
    </output>

</configuration>
-->

<routes xmlns:xsi="http://www.w3.org/2001/XMLSchema-instance" xsi:noNamespaceSchemaLocation="http://sumo.dlr.de/xsd/routes_file.xsd">

    <route id="89717070#0_to_89704060#0" edges="89717070#0 89704060#0"/>
    <route id="89717070#0_to_-24323005" edges="89717070#0 89704047#0 89702287#0 89702287#1 -24323005"/>
    <route id="89717070#0_to_38495053" edges="89717070#0 89704047#0 89702287#0 89702287#1 89702287#2 38495053"/>
    <route id="89717070#0_to_gneE42" edges="89717070#0 24324743#0 24324743#2 79378213.0 gneE42"/>
    <route id="89717070#0_to_-473911813" edges="89717070#0 24324743#0 28458507 89702302#0 89702302#1 -473911813"/>
    <route id="89717070#0_to_-89702330#2" edges="89717070#0 89704047#0 89702287#0 89702287#1 89702287#2 89702287#3 89702287#5 -89702330#2"/>
    <route id="89717070#0_to_343938338#1" edges="89717070#0 24324743#0 28458507 89704043#1 89704000#0 89704070#4 343938338#1"/>
    <route id="89717070#0_to_-89702438#1" edges="89717070#0 89704047#0 89702287#0 89702287#1 89702287#2 89702287#3 89702287#5 89702287#6 -89702438#1"/>
    <route id="89717070#0_to_gneE64" edges="89717070#0 24324743#0 28458507 89702302#0 38495054#1 38495054#2 89702498 gneE64"/>
    <route id="89717070#0_to_591135051#0" edges="89717070#0 89704047#0 89702287#0 89702287#1 89702287#2 89702287#3 89702287#5 89702287#6 89702287#7 591135051#0"/>
    <route id="89717070#0_to_gneE44" edges="89717070#0 24324743#0 28458507 89702302#0 38495054#1 38495054#2 89702498 gneE67 89704086#1 89704086#2.0 gneE44"/>
    <route id="89717070#0_to_-24324740" edges="89717070#0 24324743#0 28458507 89702302#0 38495054#1 38495054#2 89702498 gneE67 89704086#1 -24324740"/>
    <route id="89717070#0_to_89700392#0" edges="89717070#0 89704047#0 89702287#0 89702287#1 89702287#2 89702287#3 89702287#5 89702287#6 89702287#7 89700392#0"/>
    <route id="89717070#0_to_89704040#1" edges="89717070#0 24324743#0 28458507 89704043#1 89704000#0 89704070#4 313257098#0 89704040#1"/>
    <route id="89717070#0_to_gneE38" edges="89717070#0 24324743#0 28458507 89702302#0 89702302#1 89702302#2 -89702293#5 -89702293#4 -89702293#3.0 gneE38"/>
    <route id="89717070#0_to_gneE69" edges="89717070#0 24324743#0 28458507 89702302#0 89702302#1 89702302#2 -89702293#5 24428867#3 24428867#4 24428867#5 24428867#6 24428867#7 gneE69"/>
    <route id="89717070#0_to_24366038" edges="89717070#0 24324743#0 28458507 89702302#0 89702302#1 89702302#2 -89702293#5 24428867#3 24428867#4 24428867#5 24428867#6 24428867#7 352421883#0 24366038"/>
    <route id="89717070#0_to_gneE27" edges="89717070#0 24324743#0 28458507 89702302#0 89702302#1 89702302#2 -89702293#5 24428867#3 24428867#4 24428867#5 24428867#6 24428867#7 352421883#0 352421883#1 89700398.0 gneE27"/>
    <route id="89717070#0_to_gneE26" edges="89717070#0 24324743#0 28458507 89702302#0 89702302#1 89702302#2 -89702293#5 24428867#3 24428867#4 24428867#5 24428867#6 24428867#7 352421883#0 352421883#1 89700398.0 gneE26"/>
    <route id="89717070#0_to_89759857#0" edges="89717070#0 24324743#0 28458507 89702302#0 89702302#1 89702302#2 -89702293#5 24428867#3 24428867#4 24428867#5 24428867#6 24428867#7 352421883#0 352421883#1 89700398.0 gneE29 89702405#0 89759857#0"/>

</routes>
